 Gaussian 16, Revision C.01,
 Gaussian 16:  ES64L-G16RevC.01  3-Jul-2019

 -----------------------------------------------------------
 #P CCSD(T)/aug-cc-pVQZ SCF=(CONVER=8,maxcycle=200,XQC) scan
 -----------------------------------------------------------

 -----------------
 HEME + H2 2D Scan
 -----------------
 Symbolic Z-matrix:
 Charge =  0 Multiplicity = 1

 SCF Done:  E(RHF) =  -1.06469738698     A.U. after    6 cycles
 E2 =    -0.3291173066D-01 EUMP2 =    -0.10976091176363D+01
 CCSD(T)
 CCSD(T)= -0.11034202555D+01

 The electronic state is 1-SGG.
 Alpha  occ. eigenvalues --   -0.68212
 Alpha virt. eigenvalues --    0.04507   0.04855   0.17119   0.17931   0.17931
 Alpha virt. eigenvalues --    0.22859   0.23522   0.23522   0.31552   0.38602
 Alpha virt. eigenvalues --    0.61260   0.61260   0.63678   0.67319   0.67319

 Mulliken charges:
               1
     1  H   -0.000000
     2  H   -0.000000
 Sum of Mulliken charges =  -0.00000

 Dipole moment (field-independent basis, Debye):
    X=             -0.0000    Y=              0.0000    Z=             -0.0000  Tot=              0.0000
 Quadrupole moment (field-independent basis, Debye-Ang):
   XX=             -1.6995   YY=             -1.6995   ZZ=             -1.3725
   XY=             -0.0000   XZ=             -0.0000   YZ=              0.0000

 SCF Done:  E(RHF) =  -1.07221169046     A.U. after    5 cycles
 E2 =    -0.3290330229D-01 EUMP2 =    -0.11051149927515D+01
 CCSD(T)
 CCSD(T)= -0.11109623198D+01
 SCF Done:  E(RHF) =  -1.07909950091     A.U. after    5 cycles
 E2 =    -0.3289686952D-01 EUMP2 =    -0.11119963704393D+01
 CCSD(T)
 CCSD(T)= -0.11178813543D+01
 SCF Done:  E(RHF) =  -1.08540415713     A.U. after    5 cycles
 E2 =    -0.3289245392D-01 EUMP2 =    -0.11182966110490D+01
 CCSD(T)
 CCSD(T)= -0.11242207354D+01
 SCF Done:  E(RHF) =  -1.09116557870     A.U. after    5 cycles
 E2 =    -0.3289006589D-01 EUMP2 =    -0.11240556445888D+01
 CCSD(T)
 CCSD(T)= -0.11300204113D+01
 SCF Done:  E(RHF) =  -1.09642058190     A.U. after    5 cycles
 E2 =    -0.3288970466D-01 EUMP2 =    -0.11293102865570D+01
 CCSD(T)
 CCSD(T)= -0.11353172186D+01
 SCF Done:  E(RHF) =  -1.10120316144     A.U. after    5 cycles
 E2 =    -0.3289135985D-01 EUMP2 =    -0.11340945212859D+01
 CCSD(T)
 SCF Done:  E(RHF) =  -1.10554474246     A.U. after    5 cycles
 SCF Done:  E(RHF) =  -1.10947440627     A.U. after    5 cycles
 SCF Done:  E(RHF) =  -1.11301909308     A.U. after    5 cycles
 SCF Done:  E(RHF) =  -1.02177247115     A.U. after    5 cycles
 SCF Done:  E(RHF) =  -1.01986432516     A.U. after    5 cycles
 SCF Done:  E(RHF) =  -1.01796469472     A.U. after    5 cycles
 SCF Done:  E(RHF) =  -1.01607376378     A.U. after    5 cycles
 CCSD(T)= -0.10760827715D+01
 SCF Done:  E(RHF) =  -1.01419170463     A.U. after    5 cycles
 E2 =    -0.4070305825D-01 EUMP2 =    -0.10548947628749D+01
 CCSD(T)
 CCSD(T)= -0.10746810496D+01
 SCF Done:  E(RHF) =  -1.01231867852     A.U. after    5 cycles
 E2 =    -0.4088102060D-01 EUMP2 =    -0.10531996991239D+01
 CCSD(T)
 CCSD(T)= -0.10732946341D+01
 SCF Done:  E(RHF) =  -1.01045483614     A.U. after    5 cycles
 E2 =    -0.4106115264D-01 EUMP2 =    -0.10515159887793D+01
 CCSD(T)
 CCSD(T)= -0.10719236768D+01
 SCF Done:  E(RHF) =  -1.00860031810     A.U. after    5 cycles
 E2 =    -0.4124346008D-01 EUMP2 =    -0.10498437781802D+01
 CCSD(T)
 CCSD(T)= -0.10705683169D+01
 SCF Done:  E(RHF) =  -1.00675525540     A.U. after    5 cycles
 E2 =    -0.4142794865D-01 EUMP2 =    -0.10481832040446D+01
 CCSD(T)
 CCSD(T)= -0.10692286816D+01

                         Standard orientation:
 ---------------------------------------------------------------------
 Center     Atomic      Atomic             Coordinates (Angstroms)
 Number     Number       Type             X           Y           Z
 ---------------------------------------------------------------------
      1          1           0        0.000000    0.000000    0.750000
      2          1           0        0.000000    0.000000   -0.750000
 ---------------------------------------------------------------------

 SCF Done:  E(RHF) =  -1.00491976991     A.U. after    5 cycles
 E2 =    -0.4161462400D-01 EUMP2 =    -0.10465343939100D+01
 CCSD(T)
 CCSD(T)= -0.10679047171D+01
 237,-1.0705683,-1.0692287,-1.0679047\CCSD(T)=-1.1034203,-1.1109623,-1.
 Normal termination of Gaussian 16 at Tue Aug 13 16:21:23 2024.
