 Gaussian 16, Revision C.01,
 Gaussian 16:  ES64L-G16RevC.01  3-Jul-2019

 -------------------------------------------------------
 #P CCSD/aug-cc-pVQZ SCF=(CONVER=8,maxcycle=200,XQC) opt
 -------------------------------------------------------

 -----------------
 HEME + H2 2D Scan
 -----------------
 Symbolic Z-matrix:
 Charge =  0 Multiplicity = 1

 SCF Done:  E(RHF) =  -1.13332599145     A.U. after    6 cycles
 E2 =    -0.3328716405D-01 EUMP2 =    -0.11666131555028D+01
 SCF Done:  E(RHF) =  -1.13345613687     A.U. after    5 cycles
 E2 =    -0.3325825586D-01 EUMP2 =    -0.11667143927302D+01
 Optimization completed.
    -- Stationary point found.

                         Standard orientation:
 ---------------------------------------------------------------------
 Center     Atomic      Atomic             Coordinates (Angstroms)
 Number     Number       Type             X           Y           Z
 ---------------------------------------------------------------------
      1          1           0        0.000000    0.000000    0.371193
      2          1           0        0.000000    0.000000   -0.371193
 ---------------------------------------------------------------------

 The electronic state is 1-SGG.
 Alpha  occ. eigenvalues --   -0.59414
 Alpha virt. eigenvalues --    0.04723   0.04737   0.16060   0.17374   0.17374
 Alpha virt. eigenvalues --    0.22861   0.23325   0.23325   0.32662   0.36405
 Alpha virt. eigenvalues --    0.60152   0.60152   0.61045   0.66186   0.66186

 Mulliken charges:
               1
     1  H    0.000000
     2  H    0.000000
 Sum of Mulliken charges =   0.00000

 Dipole moment (field-independent basis, Debye):
    X=              0.0000    Y=             -0.0000    Z=             -0.0000  Tot=              0.0000
 Quadrupole moment (field-independent basis, Debye-Ang):
   XX=             -2.0944   YY=             -2.0944   ZZ=             -1.4262
   XY=             -0.0000   XZ=             -0.0000   YZ=              0.0000

 Normal termination of Gaussian 16 at Tue Aug 13 16:46:42 2024.
